
.Version 8.2.2 of ABINIT 
.(MPI version, prepared for a x86_64_linux_gnu5.4 computer) 

.Copyright (C) 1998-2017 ABINIT group . 
 ABINIT comes with ABSOLUTELY NO WARRANTY.
 It is free software, and you are welcome to redistribute it
 under certain conditions (GNU General Public License,
 see ~abinit/COPYING or http://www.gnu.org/copyleft/gpl.txt).

 ABINIT is a project of the Universite Catholique de Louvain,
 Corning Inc. and other collaborators, see ~abinit/doc/developers/contributors.txt .
 Please read ~abinit/doc/users/acknowledgments.html for suggested
 acknowledgments of the ABINIT effort.
 For more information, see http://www.abinit.org .

.Starting date : Mon 17 Jul 2017.
- ( at 15h51 )
  
- input  file    -> dynm.inp
- output file    -> dynm.out
- root for input  files -> dynmi
- root for output files -> dynmo


 Symmetries : space group Am m 2 (# 38); Bravais oC (1-face-center ortho.)
================================================================================
 Values of the parameters that define the memory need of the present run (RF).
     intxc =       0      iscf =       7    lmnmax =       2     lnmax =       2
     mgfft =     150  mpssoang =       2    mqgrid =    7398     natom =       8
  nloc_mem =       1    nspden =       1   nspinor =       1    nsppol =       1
      nsym =       4    n1xccc =       0    ntypat =       3    occopt =       1
   xclevel =       2
-    mband =          17        mffmem =           1         mkmem =           1
-   mkqmem =           1        mk1mem =           1           mpw =       29359
      nfft =      540000          nkpt =           1
================================================================================
P This job should need less than                     145.274 Mbytes of memory.
  Rough estimation (10% accuracy) of disk space for files :
_ WF disk file :      7.618 Mbytes ; DEN or POT disk file :      4.122 Mbytes.
================================================================================

--------------------------------------------------------------------------------
------------- Echo of variables that govern the present computation ------------
--------------------------------------------------------------------------------
-
- outvars: echo of selected default values                                      
-   iomode0 =  0 , fftalg0 =112 , wfoptalg0 =  0
-
- outvars: echo of global parameters not present in the input file              
-  max_nthreads =    4
-
 -outvars: echo values of preprocessed input variables --------
            acell      1.8897261250E+00  1.8897261250E+00  1.8897261250E+00 Bohr
              amu      1.08110000E+01  1.20110000E+01  1.40067400E+01
             ecut      5.00000000E+01 Hartree
-          fftalg         112
           irdwfk           1
           istwfk        1
              ixc          11
           kptopt           2
         kptrlatt        1    0    0      0    1    0      0    0    1
          kptrlen      9.29560873E+00
P           mkmem           1
P          mkqmem           1
P          mk1mem           1
            natom           8
            nband          17
            ngfft          60      60     150
             nkpt           1
             nqpt           1
            nstep        1000
             nsym           4
           ntypat           3
              occ      2.000000  2.000000  2.000000  2.000000  2.000000  2.000000
                       2.000000  2.000000  2.000000  2.000000  2.000000  2.000000
                       2.000000  2.000000  2.000000  2.000000  0.000000
        optdriver           1
          rfatpol           1       2
            rfdir           1       1       1
           rfphon           1
            rprim      4.9190243000E+00  0.0000000000E+00  0.0000000000E+00
                       2.4595121500E+00  4.2600000056E+00  0.0000000000E+00
                       0.0000000000E+00  0.0000000000E+00  1.2297560730E+01
          spgroup          38
           symrel      1  0  0   0  1  0   0  0  1       0  1  0   1  0  0   0  0 -1
                       1  0  0   0  1  0   0  0 -1       0  1  0   1  0  0   0  0  1
           tolwfr      1.00000000E-05
            typat      1  2  2  2  2  2  2  3
           xangst      6.1487803493E-01  3.5499999899E-01  0.0000000000E+00
                       1.2297560699E+00  1.4199999959E+00  0.0000000000E+00
                       1.8446341048E+00  3.5499999899E-01  0.0000000000E+00
                       1.8446341048E+00  1.7749999949E+00  0.0000000000E+00
                       2.4595121397E+00  7.0999999797E-01  0.0000000000E+00
                       2.4595121397E+00  1.4199999959E+00  0.0000000000E+00
                       3.0743901747E+00  1.7749999949E+00  0.0000000000E+00
                       1.2297560699E+00  7.0999999797E-01  0.0000000000E+00
            xcart      1.1619510911E+00  6.7085277526E-01  0.0000000000E+00
                       2.3239021823E+00  2.6834111010E+00  0.0000000000E+00
                       3.4858532734E+00  6.7085277526E-01  0.0000000000E+00
                       3.4858532734E+00  3.3542638763E+00  0.0000000000E+00
                       4.6478043646E+00  1.3417055505E+00  0.0000000000E+00
                       4.6478043646E+00  2.6834111010E+00  0.0000000000E+00
                       5.8097554557E+00  3.3542638763E+00  0.0000000000E+00
                       2.3239021823E+00  1.3417055505E+00  0.0000000000E+00
             xred      8.3333333333E-02  8.3333333333E-02  0.0000000000E+00
                       8.3333333333E-02  3.3333333333E-01  0.0000000000E+00
                       3.3333333333E-01  8.3333333333E-02  0.0000000000E+00
                       1.6666666667E-01  4.1666666667E-01  0.0000000000E+00
                       4.1666666667E-01  1.6666666667E-01  0.0000000000E+00
                       3.3333333333E-01  3.3333333333E-01  0.0000000000E+00
                       4.1666666667E-01  4.1666666667E-01  0.0000000000E+00
                       1.6666666667E-01  1.6666666667E-01  0.0000000000E+00
            znucl        5.00000    6.00000    7.00000

================================================================================

 chkinp: Checking input parameters for consistency.

================================================================================
== DATASET  1 ==================================================================
-   nproc =    1

 Exchange-correlation functional for the present dataset will be:
  GGA: Perdew-Burke-Ernzerhof functional - ixc=11
 Citation for XC functional:
  J.P.Perdew, K.Burke, M.Ernzerhof, PRL 77, 3865 (1996)

 Real(R)+Recip(G) space primitive vectors, cartesian coordinates (Bohr,Bohr^-1):
 R(1)=  9.2956087  0.0000000  0.0000000  G(1)=  0.1075777 -0.0621100  0.0000000
 R(2)=  4.6478044  8.0502333  0.0000000  G(2)=  0.0000000  0.1242200  0.0000000
 R(3)=  0.0000000  0.0000000 23.2390218  G(3)=  0.0000000  0.0000000  0.0430311
 Unit cell volume ucvol=  1.7390183E+03 bohr^3
 Angles (23,13,12)=  9.00000000E+01  9.00000000E+01  6.00000000E+01 degrees
 setup1 : take into account q-point for computing boxcut.

 getcut: wavevector=  0.0000  0.0000  0.0000  ngfft=  60  60 150
         ecut(hartree)=     50.000   => boxcut(ratio)=   2.02779

--- Pseudopotential description ------------------------------------------------
- pspini: atom type   1  psp file is psppar.B
- pspatm: opening atomic psp file    psppar.B
- Goedecker pseudopotential for B
-  5.00000   3.00000     70301                znucl, zion, pspdat
   10   11    1    2      2001   0.00000      pspcod,pspxc,lmax,lloc,mmax,r2well
 rloc=   0.4189914
 cc(1:2)=  -5.8594617   0.9037564
 for angular momentum l =  0 r(l) =   0.3713205
   h11, h12, h13 =   6.2972802   0.0000000   0.0000000
        h22, h23 =               0.0000000   0.0000000
             h33 =                           0.0000000
 for angular momentum l =  1 r(l) =   0.3645631
   h11, h12, h13 =   0.0000000   0.0000000   0.0000000
        h22, h23 =               0.0000000   0.0000000
             h33 =                           0.0000000
   k11, k12, k13 =   0.0008550   0.0000000   0.0000000
        k22, k23 =               0.0000000   0.0000000
             k33 =                           0.0000000
-  Local part computed in reciprocal space.

 pspatm : COMMENT -
  the projectors are not normalized,
  so that the KB energies are not consistent with 
  definition in PRB44, 8503 (1991). 
  However, this does not influence the results obtained hereafter.
 pspatm: epsatm=   -0.33797878
         --- l  ekb(1:nproj) -->
             0    1.142890
             1    0.000000
 pspatm: atomic psp has been read  and splines computed

- pspini: atom type   2  psp file is psppar.C
- pspatm: opening atomic psp file    psppar.C
- Goedecker pseudopotential for C
-  6.00000   4.00000     70301                znucl, zion, pspdat
   10   11    1    2      2001   0.00000      pspcod,pspxc,lmax,lloc,mmax,r2well
 rloc=   0.3384712
 cc(1:2)=  -8.8036740   1.3392108
 for angular momentum l =  0 r(l) =   0.3025757
   h11, h12, h13 =   9.6224867   0.0000000   0.0000000
        h22, h23 =               0.0000000   0.0000000
             h33 =                           0.0000000
 for angular momentum l =  1 r(l) =   0.2915069
   h11, h12, h13 =   0.0000000   0.0000000   0.0000000
        h22, h23 =               0.0000000   0.0000000
             h33 =                           0.0000000
   k11, k12, k13 =   0.0020732   0.0000000   0.0000000
        k22, k23 =               0.0000000   0.0000000
             k33 =                           0.0000000
-  Local part computed in reciprocal space.

 pspatm : COMMENT -
  the projectors are not normalized,
  so that the KB energies are not consistent with 
  definition in PRB44, 8503 (1991). 
  However, this does not influence the results obtained hereafter.
 pspatm: epsatm=   -0.04360725
         --- l  ekb(1:nproj) -->
             0    0.944919
             1    0.000000
 pspatm: atomic psp has been read  and splines computed

- pspini: atom type   3  psp file is psppar.N
- pspatm: opening atomic psp file    psppar.N
- Goedecker pseudopotential for N
-  7.00000   5.00000     70301                znucl, zion, pspdat
   10   11    1    2      2001   0.00000      pspcod,pspxc,lmax,lloc,mmax,r2well
 rloc=   0.2837905
 cc(1:2)= -12.4152256   1.8680959
 for angular momentum l =  0 r(l) =   0.2554050
   h11, h12, h13 =  13.6302626   0.0000000   0.0000000
        h22, h23 =               0.0000000   0.0000000
             h33 =                           0.0000000
 for angular momentum l =  1 r(l) =   0.2454945
   h11, h12, h13 =   0.0000000   0.0000000   0.0000000
        h22, h23 =               0.0000000   0.0000000
             h33 =                           0.0000000
   k11, k12, k13 =   0.0041475   0.0000000   0.0000000
        k22, k23 =               0.0000000   0.0000000
             k33 =                           0.0000000
-  Local part computed in reciprocal space.

 pspatm : COMMENT -
  the projectors are not normalized,
  so that the KB energies are not consistent with 
  definition in PRB44, 8503 (1991). 
  However, this does not influence the results obtained hereafter.
 pspatm: epsatm=    0.07842924
         --- l  ekb(1:nproj) -->
             0    0.805003
             1    0.000000
 pspatm: atomic psp has been read  and splines computed

  -1.66781765E+01                                ecore*ucvol(ha*bohr**3)
--------------------------------------------------------------------------------

-inwffil : will read wavefunctions from disk file dynmi_WFK

 ==>  initialize data related to q vector <== 

 The list of irreducible perturbations for this q vector is:
    1)    idir= 1    ipert=   1
    2)    idir= 3    ipert=   1
    3)    idir= 1    ipert=   2
    4)    idir= 2    ipert=   2
    5)    idir= 3    ipert=   2

================================================================================

 The perturbation idir=   2  ipert=   1 is
 symmetric of a previously calculated perturbation.
 So, its SCF calculation is not needed.


--------------------------------------------------------------------------------
 Perturbation wavevector (in red.coord.)   0.000000  0.000000  0.000000
 Perturbation : displacement of atom   1   along direction   1
 Found     2 symmetries that leave the perturbation invariant.
 symkpt : not enough symmetry to change the number of k points.

--------------------------------------------------------------------------------

-inwffil : will read wavefunctions from disk file dynmi_WFK
--------------------------------------------------------------------------------

 Initialisation of the first-order wave-functions :
  ireadwf=   0

     iter   2DEtotal(Ha)        deltaE(Ha) residm    vres2
-ETOT  1   1010.6381894388     -1.258E+03 5.169E+00 2.090E+06
 ETOT  2   843.68485852804     -1.670E+02 2.346E+00 2.469E+06
 ETOT  3   771.37687364065     -7.231E+01 7.300E-02 1.508E+07
 ETOT  4   747.47975787453     -2.390E+01 3.056E-02 1.801E+07
 ETOT  5   747.47266653927     -7.091E-03 9.700E-03 1.920E+07
 ETOT  6   747.35282741929     -1.198E-01 1.963E-04 1.780E+07
 ETOT  7   746.24437582432     -1.108E+00 6.309E-04 1.447E+07
 ETOT  8   753.33928719348      7.095E+00 1.012E-01 4.676E+08
 ETOT  9   760.30678680518      6.967E+00 3.409E-02 8.303E+08
 ETOT 10   747.29367998207     -1.301E+01 7.784E-02 6.240E+07
 ETOT 11   741.29946069827     -5.994E+00 3.794E-02 7.320E+05
 ETOT 12   741.59873767700      2.993E-01 1.096E-02 4.858E+05
 ETOT 13   741.77995334223      1.812E-01 3.411E-03 1.869E+05
 ETOT 14   741.48369934082     -2.963E-01 1.079E-02 4.785E+04
 ETOT 15   740.90007293006     -5.836E-01 2.700E-03 2.169E+04
 ETOT 16   740.88608005237     -1.399E-02 6.456E-04 1.283E+04
 ETOT 17   740.89002700740      3.947E-03 3.063E-04 4.157E+03
 ETOT 18   740.86815863022     -2.187E-02 3.872E-04 1.884E+03
 ETOT 19   740.82335147072     -4.481E-02 1.961E-04 1.448E+03
 ETOT 20   740.81367055773     -9.681E-03 1.420E-05 1.157E+03
 ETOT 21   740.81359316195     -7.740E-05 9.936E-06 1.187E+03

 At SCF step   21   max residual=  9.94E-06 < tolwfr=  1.00E-05 =>converged.
================================================================================

 ----iterations are completed or convergence reached----

 Mean square residual over all n,k,spin=   7.2824E-06; max=  9.9356E-06

 Thirteen components of 2nd-order total energy (hartree) are
 1,2,3: 0th-order hamiltonian combined with 1st-order wavefunctions
     kin0=   2.01471061E+03 eigvalue=   1.93062799E+02  local=  -1.88239675E+03
 4,5,6: 1st-order hamiltonian combined with 1st and 0th-order wfs
 loc psp =  -8.50607512E-01  Hartree=   1.19054290E+02     xc=  -6.25003209E+01
 note that "loc psp" includes a xc core correction that could be resolved
 7,8,9: eventually, occupation + non-local contributions
    edocc=   6.12571717E+00     enl0=   1.13990479E+03   enl1=  -3.05482428E+03
 1-9 gives the relaxation energy (to be shifted if some occ is /=2.0)
   erelax=  -1.52771376E+03
 10,11,12 Non-relaxation  contributions : frozen-wavefunctions and Ewald
 fr.local=  -5.74234861E+02 fr.nonlo=   1.89073998E+03  Ewald=   9.52022236E+02
 13,14 Frozen wf xc core corrections (1) and (2)
 frxc 1  =   0.00000000E+00  frxc 2 =   0.00000000E+00
 Resulting in :
 2DEtotal=    0.7408135932E+03 Ha. Also 2DEtotal=    0.201585630522E+05 eV
    (2DErelax=   -1.5277137575E+03 Ha. 2DEnonrelax=    2.2685273506E+03 Ha)
    (  non-var. 2DEtotal :    7.4068990653E+02 Ha)


--------------------------------------------------------------------------------
 Perturbation wavevector (in red.coord.)   0.000000  0.000000  0.000000
 Perturbation : displacement of atom   1   along direction   3
 Found     2 symmetries that leave the perturbation invariant.
 symkpt : not enough symmetry to change the number of k points.

--------------------------------------------------------------------------------

-inwffil : will read wavefunctions from disk file dynmi_WFK
--------------------------------------------------------------------------------

 Initialisation of the first-order wave-functions :
  ireadwf=   0

     iter   2DEtotal(Ha)        deltaE(Ha) residm    vres2
-ETOT  1   639.45579948574     -4.524E+03 1.278E+01 7.660E+07
 ETOT  2  -1493.6576779850     -2.133E+03 8.145E+00 3.051E+07
 ETOT  3  -1531.6062060811     -3.795E+01 1.351E-01 1.194E+07
 ETOT  4  -1541.7851133176     -1.018E+01 7.892E-02 5.747E+06
 ETOT  5  -1562.7288553719     -2.094E+01 1.061E-01 4.299E+06
 ETOT  6  -1583.9177217174     -2.119E+01 2.369E-01 2.270E+06
 ETOT  7  -1588.8376996070     -4.920E+00 2.893E-02 1.723E+06
 ETOT  8  -1595.7104134871     -6.873E+00 9.278E-02 9.320E+05
 ETOT  9  -1598.6875882491     -2.977E+00 4.163E-02 5.430E+05
 ETOT 10  -1599.8378021868     -1.150E+00 2.974E-02 2.252E+05
 ETOT 11  -1600.0519625212     -2.142E-01 2.350E-02 3.643E+04
 ETOT 12  -1600.3264234789     -2.745E-01 7.378E-03 4.270E+03
 ETOT 13  -1600.3205951480      5.828E-03 5.966E-04 6.238E+03
 ETOT 14  -1600.3310741193     -1.048E-02 2.167E-04 3.035E+03
 ETOT 15  -1600.3381886839     -7.115E-03 3.860E-04 1.214E+03
 ETOT 16  -1600.3385080270     -3.193E-04 3.000E-05 1.938E+03
 ETOT 17  -1600.3384932888      1.474E-05 1.887E-04 1.657E+02
 ETOT 18  -1600.3382717974      2.215E-04 1.110E-05 1.207E+02
 ETOT 19  -1600.3388668579     -5.951E-04 4.133E-05 2.646E+01
 ETOT 20  -1600.3388675755     -7.176E-07 8.652E-06 2.330E+01

 At SCF step   20   max residual=  8.65E-06 < tolwfr=  1.00E-05 =>converged.
================================================================================

 ----iterations are completed or convergence reached----

 Mean square residual over all n,k,spin=   5.7889E-06; max=  8.6524E-06

 Thirteen components of 2nd-order total energy (hartree) are
 1,2,3: 0th-order hamiltonian combined with 1st-order wavefunctions
     kin0=   9.19750988E+03 eigvalue=   9.75057274E+02  local=  -7.94849424E+03
 4,5,6: 1st-order hamiltonian combined with 1st and 0th-order wfs
 loc psp =  -1.55327106E+03  Hartree=   7.79230908E+02     xc=  -2.75311969E+02
 note that "loc psp" includes a xc core correction that could be resolved
 7,8,9: eventually, occupation + non-local contributions
    edocc=   1.02640473E+02     enl0=   3.93304892E+03   enl1=  -1.19745499E+04
 1-9 gives the relaxation energy (to be shifted if some occ is /=2.0)
   erelax=  -6.76413973E+03
 10,11,12 Non-relaxation  contributions : frozen-wavefunctions and Ewald
 fr.local=   5.20885792E+03 fr.nonlo=   5.22934232E+03  Ewald=  -5.27439937E+03
 13,14 Frozen wf xc core corrections (1) and (2)
 frxc 1  =   0.00000000E+00  frxc 2 =   0.00000000E+00
 Resulting in :
 2DEtotal=   -0.1600338868E+04 Ha. Also 2DEtotal=   -0.435474352317E+05 eV
    (2DErelax=   -6.7641397308E+03 Ha. 2DEnonrelax=    5.1638008632E+03 Ha)
    (  non-var. 2DEtotal :   -1.6001096272E+03 Ha)


--------------------------------------------------------------------------------
 Perturbation wavevector (in red.coord.)   0.000000  0.000000  0.000000
 Perturbation : displacement of atom   2   along direction   1
 Found     2 symmetries that leave the perturbation invariant.
 symkpt : not enough symmetry to change the number of k points.

--------------------------------------------------------------------------------

-inwffil : will read wavefunctions from disk file dynmi_WFK
--------------------------------------------------------------------------------

 Initialisation of the first-order wave-functions :
  ireadwf=   0

     iter   2DEtotal(Ha)        deltaE(Ha) residm    vres2
-ETOT  1   1291.6928563654     -2.904E+03 1.659E+01 5.874E+06
 ETOT  2   871.62519887878     -4.201E+02 2.918E+00 1.071E+07
 ETOT  3   743.18019520661     -1.284E+02 4.723E-01 3.851E+07
 ETOT  4   611.11791575807     -1.321E+02 1.347E-01 2.105E+07
 ETOT  5   523.01617386043     -8.810E+01 1.619E-01 3.330E+07
 ETOT  6   519.88911766299     -3.127E+00 1.543E-02 5.123E+07
 ETOT  7   518.96046779895     -9.286E-01 1.610E-02 8.021E+07
 ETOT  8   520.21574741703      1.255E+00 6.677E-03 9.928E+07
 ETOT  9   519.99855201991     -2.172E-01 4.459E-04 9.084E+07
 ETOT 10   523.77168191123      3.773E+00 1.610E-02 1.488E+08
 ETOT 11   517.45182520254     -6.320E+00 8.476E-02 4.356E+06
 ETOT 12   518.80233448245      1.351E+00 5.773E-03 1.543E+05
 ETOT 13   516.28709877148     -2.515E+00 5.664E-03 3.666E+04
 ETOT 14   516.26433067599     -2.277E-02 2.400E-03 3.156E+04
 ETOT 15   516.14215933124     -1.222E-01 3.681E-04 5.329E+03
 ETOT 16   516.11641816111     -2.574E-02 9.886E-05 9.168E+03
 ETOT 17   516.14512023770      2.870E-02 6.820E-05 3.685E+03
 ETOT 18   516.11479252205     -3.033E-02 1.039E-04 3.023E+03
 ETOT 19   516.11027454764     -4.518E-03 1.486E-05 3.025E+03
 ETOT 20   516.10981376049     -4.608E-04 9.518E-06 1.693E+03

 At SCF step   20   max residual=  9.52E-06 < tolwfr=  1.00E-05 =>converged.
================================================================================

 ----iterations are completed or convergence reached----

 Mean square residual over all n,k,spin=   5.2729E-06; max=  9.5184E-06

 Thirteen components of 2nd-order total energy (hartree) are
 1,2,3: 0th-order hamiltonian combined with 1st-order wavefunctions
     kin0=   6.86850327E+03 eigvalue=   4.73791076E+02  local=  -5.95631698E+03
 4,5,6: 1st-order hamiltonian combined with 1st and 0th-order wfs
 loc psp =  -8.10160456E+02  Hartree=   3.76126704E+02     xc=  -1.31722675E+02
 note that "loc psp" includes a xc core correction that could be resolved
 7,8,9: eventually, occupation + non-local contributions
    edocc=   2.03450775E+00     enl0=   2.04772588E+03   enl1=  -6.54987822E+03
 1-9 gives the relaxation energy (to be shifted if some occ is /=2.0)
   erelax=  -3.67989690E+03
 10,11,12 Non-relaxation  contributions : frozen-wavefunctions and Ewald
 fr.local=   3.29960717E+02 fr.nonlo=   3.46928039E+03  Ewald=   3.96765600E+02
 13,14 Frozen wf xc core corrections (1) and (2)
 frxc 1  =   0.00000000E+00  frxc 2 =   0.00000000E+00
 Resulting in :
 2DEtotal=    0.5161098138E+03 Ha. Also 2DEtotal=    0.140440622561E+05 eV
    (2DErelax=   -3.6798968956E+03 Ha. 2DEnonrelax=    4.1960067093E+03 Ha)
    (  non-var. 2DEtotal :    5.1598737264E+02 Ha)


--------------------------------------------------------------------------------
 Perturbation wavevector (in red.coord.)   0.000000  0.000000  0.000000
 Perturbation : displacement of atom   2   along direction   2
 Found     2 symmetries that leave the perturbation invariant.
 symkpt : not enough symmetry to change the number of k points.

--------------------------------------------------------------------------------

-inwffil : will read wavefunctions from disk file dynmi_WFK
--------------------------------------------------------------------------------

 Initialisation of the first-order wave-functions :
  ireadwf=   0

     iter   2DEtotal(Ha)        deltaE(Ha) residm    vres2
-ETOT  1   2759.1009250778     -3.222E+03 1.429E+01 6.909E+06
 ETOT  2   2296.4585540660     -4.626E+02 4.540E+00 3.676E+06
 ETOT  3   1729.4879288216     -5.670E+02 1.182E+00 3.005E+06
 ETOT  4   1728.3137836304     -1.174E+00 8.314E-02 6.375E+06
 ETOT  5   1726.8476966946     -1.466E+00 1.056E-02 1.182E+07
 ETOT  6   1720.4403392646     -6.407E+00 7.344E-03 5.184E+06
 ETOT  7   1724.0851469521      3.645E+00 2.195E-02 2.190E+07
 ETOT  8   1732.0917971316      8.007E+00 1.085E-02 1.019E+08
 ETOT  9   1730.2807701921     -1.811E+00 1.335E-03 8.662E+07
 ETOT 10   1733.7531325127      3.472E+00 1.319E-02 9.999E+07
 ETOT 11   1722.0361881461     -1.172E+01 4.909E-02 4.875E+07
 ETOT 12   1720.2731976840     -1.763E+00 6.321E-03 1.146E+07
 ETOT 13   1780.4632096309      6.019E+01 3.122E-01 1.277E+07
 ETOT 14   1720.8413772087     -5.962E+01 2.829E-01 1.177E+07
 ETOT 15   1724.3322730711      3.491E+00 2.961E-02 8.108E+06
 ETOT 16   1722.1635226224     -2.169E+00 5.292E-03 6.767E+06
 ETOT 17   1720.1253072787     -2.038E+00 3.334E-02 2.601E+05
 ETOT 18   1720.4931833065      3.679E-01 5.674E-03 2.331E+05
 ETOT 19   1724.4720556159      3.979E+00 3.779E-02 1.952E+05
 ETOT 20   1719.6547636873     -4.817E+00 4.673E-02 2.481E+05
 ETOT 21   1719.9318157363      2.771E-01 1.701E-03 7.338E+04
 ETOT 22   1720.2427350342      3.109E-01 2.121E-03 1.513E+05
 ETOT 23   1718.9694285784     -1.273E+00 7.567E-03 2.928E+05
 ETOT 24   1720.1920525828      1.223E+00 1.282E-02 4.550E+05
 ETOT 25   1718.9412010444     -1.251E+00 5.049E-03 2.704E+05
 ETOT 26   1718.8895858154     -5.162E-02 1.989E-04 1.937E+05
 ETOT 27   1718.8636307646     -2.596E-02 8.761E-05 1.959E+05
 ETOT 28   1718.8548233133     -8.807E-03 9.322E-05 1.374E+05
 ETOT 29   1718.8928737678      3.805E-02 1.446E-04 4.614E+04
 ETOT 30   1718.9192845591      2.641E-02 4.066E-04 2.647E+04
 ETOT 31   1718.8787146517     -4.057E-02 3.766E-04 1.712E+04
 ETOT 32   1718.8531854407     -2.553E-02 5.411E-05 5.315E+03
 ETOT 33   1718.8514628002     -1.723E-03 9.409E-06 4.653E+03

 At SCF step   33   max residual=  9.41E-06 < tolwfr=  1.00E-05 =>converged.
================================================================================

 ----iterations are completed or convergence reached----

 Mean square residual over all n,k,spin=   6.5269E-06; max=  9.4087E-06

 Thirteen components of 2nd-order total energy (hartree) are
 1,2,3: 0th-order hamiltonian combined with 1st-order wavefunctions
     kin0=   5.81099353E+03 eigvalue=   5.78498780E+02  local=  -5.34450540E+03
 4,5,6: 1st-order hamiltonian combined with 1st and 0th-order wfs
 loc psp =  -4.95118242E+02  Hartree=   4.01495213E+02     xc=  -1.34650182E+02
 note that "loc psp" includes a xc core correction that could be resolved
 7,8,9: eventually, occupation + non-local contributions
    edocc=   7.68302366E+00     enl0=   2.93871609E+03   enl1=  -8.02534933E+03
 1-9 gives the relaxation energy (to be shifted if some occ is /=2.0)
   erelax=  -4.26223651E+03
 10,11,12 Non-relaxation  contributions : frozen-wavefunctions and Ewald
 fr.local=  -5.97715805E+02 fr.nonlo=   4.85132929E+03  Ewald=   1.72747448E+03
 13,14 Frozen wf xc core corrections (1) and (2)
 frxc 1  =   0.00000000E+00  frxc 2 =   0.00000000E+00
 Resulting in :
 2DEtotal=    0.1718851463E+04 Ha. Also 2DEtotal=    0.467723269526E+05 eV
    (2DErelax=   -4.2622365059E+03 Ha. 2DEnonrelax=    5.9810879687E+03 Ha)
    (  non-var. 2DEtotal :    1.7208541830E+03 Ha)


--------------------------------------------------------------------------------
 Perturbation wavevector (in red.coord.)   0.000000  0.000000  0.000000
 Perturbation : displacement of atom   2   along direction   3
 The set of symmetries contains only one element for this perturbation.
 symkpt : not enough symmetry to change the number of k points.

--------------------------------------------------------------------------------

-inwffil : will read wavefunctions from disk file dynmi_WFK
--------------------------------------------------------------------------------

 Initialisation of the first-order wave-functions :
  ireadwf=   0

     iter   2DEtotal(Ha)        deltaE(Ha) residm    vres2
-ETOT  1  -596.35187973374     -1.730E+04 5.057E+01 1.935E+09
 ETOT  2  -3693.4489588514     -3.097E+03 3.814E+00 5.487E+08
 ETOT  3  -3928.9379114089     -2.355E+02 5.487E-01 1.067E+07
 ETOT  4  -3965.3703026196     -3.643E+01 1.370E-01 1.091E+07
 ETOT  5  -3987.7315334497     -2.236E+01 9.316E-02 9.996E+06
 ETOT  6  -4011.0386224692     -2.331E+01 1.241E-01 5.424E+06
 ETOT  7  -4029.8139277287     -1.878E+01 2.299E-01 1.668E+06
 ETOT  8  -4031.3828777534     -1.569E+00 2.298E-02 1.236E+06
 ETOT  9  -4033.3158015796     -1.933E+00 2.253E-02 6.604E+05
 ETOT 10  -4034.0348995175     -7.191E-01 6.409E-03 5.160E+05
 ETOT 11  -4034.3686939991     -3.338E-01 4.843E-03 3.454E+05
 ETOT 12  -4034.8397017433     -4.710E-01 7.200E-03 2.002E+05
 ETOT 13  -4035.4730943128     -6.334E-01 9.473E-03 1.428E+05
 ETOT 14  -4035.8264484383     -3.534E-01 1.693E-02 5.407E+04
 ETOT 15  -4035.8678880353     -4.144E-02 2.258E-03 8.425E+03
 ETOT 16  -4035.8686984132     -8.104E-04 3.198E-04 1.935E+03
 ETOT 17  -4035.8820300943     -1.333E-02 5.191E-04 1.820E+02
 ETOT 18  -4035.8792730030      2.757E-03 1.250E-04 1.303E+03
 ETOT 19  -4035.8795438823     -2.709E-04 9.482E-06 1.267E+03

 At SCF step   19   max residual=  9.48E-06 < tolwfr=  1.00E-05 =>converged.
================================================================================

 ----iterations are completed or convergence reached----

 Mean square residual over all n,k,spin=   5.6145E-06; max=  9.4817E-06

 Thirteen components of 2nd-order total energy (hartree) are
 1,2,3: 0th-order hamiltonian combined with 1st-order wavefunctions
     kin0=   3.01329966E+04 eigvalue=   2.99586742E+03  local=  -2.48116361E+04
 4,5,6: 1st-order hamiltonian combined with 1st and 0th-order wfs
 loc psp =  -4.63839877E+03  Hartree=   4.11150493E+03     xc=  -2.78450593E+03
 note that "loc psp" includes a xc core correction that could be resolved
 7,8,9: eventually, occupation + non-local contributions
    edocc=   7.56671994E+02     enl0=   1.03393594E+04   enl1=  -3.68405237E+04
 1-9 gives the relaxation energy (to be shifted if some occ is /=2.0)
   erelax=  -2.07386641E+04
 10,11,12 Non-relaxation  contributions : frozen-wavefunctions and Ewald
 fr.local=   1.17569731E+04 fr.nonlo=   1.60077692E+04  Ewald=  -1.10619577E+04
 13,14 Frozen wf xc core corrections (1) and (2)
 frxc 1  =   0.00000000E+00  frxc 2 =   0.00000000E+00
 Resulting in :
 2DEtotal=   -0.4035879544E+04 Ha. Also 2DEtotal=   -0.109821867481E+06 eV
    (2DErelax=   -2.0738664133E+04 Ha. 2DEnonrelax=    1.6702784589E+04 Ha)
    (  non-var. 2DEtotal :   -4.0366766422E+03 Ha)

================================================================================

 ---- first-order wavefunction calculations are completed ----


 ==> Compute Derivative Database <==
  
  2nd-order matrix (non-cartesian coordinates, masses not included,
   asr not included )
     j1       j2             matrix element
  dir pert dir pert     real part     imaginary part
  
   1    1   1    1       740.6899065332         0.0000000000
   1    1   2    1       861.8834878171         0.0000000000
   1    1   3    1        -0.0000000000         0.0000000000
   1    1   1    2         4.9633634538        -0.0000000000
   1    1   2    2         5.7438252393         0.0000000000
   1    1   3    2        -0.0000000000         0.0000000000
   1    1   1    3        -1.8880026588        -0.0000000000
   1    1   2    3        19.1309564028        -0.0000000000
   1    1   3    3         0.0000000000        -0.0000000000
   1    1   1    4        -2.5423297970        -0.0000000000
   1    1   2    4         2.6694974254        -0.0000000000
   1    1   3    4        -0.0000000000         0.0000000000
   1    1   1    5         9.9073586665         0.0000000000
   1    1   2    5        -8.0753935583        -0.0000000000
   1    1   3    5        -0.0000000000        -0.0000000000
   1    1   1    6       -16.1151960142         0.0000000000
   1    1   2    6       -12.4666067183         0.0000000000
   1    1   3    6         0.0000000000        -0.0000000000
   1    1   1    7         9.0870284214        -0.0000000000
   1    1   2    7         6.5450794373        -0.0000000000
   1    1   3    7         0.0000000000        -0.0000000000
   1    1   1    8      -718.4113915539         0.0000000000
   1    1   2    8      -857.9478841847        -0.0000000000
   1    1   3    8        -0.0000000000         0.0000000000
   1    1   3   10         0.0000000000         0.0000000000
  
   2    1   1    1       861.8834878171         0.0000000000
   2    1   2    1       740.6899065322         0.0000000000
   2    1   3    1        -0.0000000000         0.0000000000
   2    1   1    2        19.1309564026         0.0000000000
   2    1   2    2        -1.8880026589        -0.0000000000
   2    1   3    2        -0.0000000000         0.0000000000
   2    1   1    3         5.7438252395        -0.0000000000
   2    1   2    3         4.9633634537        -0.0000000000
   2    1   3    3         0.0000000000         0.0000000000
   2    1   1    4        -8.0753935584        -0.0000000000
   2    1   2    4         9.9073586665        -0.0000000000
   2    1   3    4         0.0000000000        -0.0000000000
   2    1   1    5         2.6694974255        -0.0000000000
   2    1   2    5        -2.5423297970        -0.0000000000
   2    1   3    5         0.0000000000        -0.0000000000
   2    1   1    6       -12.4666067183         0.0000000000
   2    1   2    6       -16.1151960142         0.0000000000
   2    1   3    6        -0.0000000000         0.0000000000
   2    1   1    7         6.5450794373        -0.0000000000
   2    1   2    7         9.0870284214         0.0000000000
   2    1   3    7         0.0000000000        -0.0000000000
   2    1   1    8      -857.9478841847        -0.0000000000
   2    1   2    8      -718.4113915528        -0.0000000000
   2    1   3    8         0.0000000000        -0.0000000000
   2    1   3   10         0.0000000000         0.0000000000
  
   3    1   1    1        -0.0000000000         0.0000000000
   3    1   2    1        -0.0000000000         0.0000000000
   3    1   3    1     -1600.1096272097         0.0000000000
   3    1   1    2        -0.0000000000         0.0000000000
   3    1   2    2         0.0000000000         0.0000000000
   3    1   3    2       -26.7806619337        -0.0000000000
   3    1   1    3        -0.0000000000        -0.0000000000
   3    1   2    3         0.0000000000         0.0000000000
   3    1   3    3       -26.7806619345         0.0000000000
   3    1   1    4        -0.0000000000         0.0000000000
   3    1   2    4         0.0000000000        -0.0000000000
   3    1   3    4        13.1877535153        -0.0000000000
   3    1   1    5        -0.0000000000        -0.0000000000
   3    1   2    5         0.0000000000        -0.0000000000
   3    1   3    5        13.1877535151        -0.0000000000
   3    1   1    6         0.0000000000        -0.0000000000
   3    1   2    6        -0.0000000000         0.0000000000
   3    1   3    6        97.6476858965        -0.0000000000
   3    1   1    7         0.0000000000        -0.0000000000
   3    1   2    7         0.0000000000        -0.0000000000
   3    1   3    7       -15.4666919248        -0.0000000000
   3    1   1    8        -0.0000000000         0.0000000000
   3    1   2    8         0.0000000000        -0.0000000000
   3    1   3    8      1689.2598486719        -0.0000000000
   3    1   1   10         0.0000000000         0.0000000000
   3    1   2   10         0.0000000000         0.0000000000
  
   1    2   1    1         4.9137151771         0.0000000000
   1    2   2    1        19.1309564026        -0.0000000000
   1    2   3    1        -0.0000000000        -0.0000000000
   1    2   1    2       515.9873726368         0.0000000000
   1    2   2    2       757.4724701562         0.0000000000
   1    2   3    2         0.0000000000         0.0000000000
   1    2   1    3       -33.2394793756         0.0000000000
   1    2   2    3        49.2290262062         0.0000000000
   1    2   3    3         0.0000000000         0.0000000000
   1    2   1    4      -750.2495064961         0.0000000000
   1    2   2    4      -942.9483830269        -0.0000000000
   1    2   3    4        -0.0000000000         0.0000000000
   1    2   1    5       -38.6177528539        -0.0000000000
   1    2   2    5       -14.1048406417        -0.0000000000
   1    2   3    5         0.0000000000         0.0000000000
   1    2   1    6       -24.6276062551        -0.0000000000
   1    2   2    6        68.7289430709        -0.0000000000
   1    2   3    6         0.0000000000        -0.0000000000
   1    2   1    7         9.5466176038         0.0000000000
   1    2   2    7       -17.8156881636         0.0000000000
   1    2   3    7        -0.0000000000         0.0000000000
   1    2   1    8       360.7842486052        -0.0000000000
   1    2   2    8        97.0947671202        -0.0000000000
   1    2   3    8         0.0000000000         0.0000000000
   1    2   3   10         0.0000000000         0.0000000000
  
   2    2   1    1         6.3910500818        -0.0000000000
   2    2   2    1        -1.8880026589         0.0000000000
   2    2   3    1         0.0000000000        -0.0000000000
   2    2   1    2       756.3753634048         0.0000000000
   2    2   2    2      1720.8541830204         0.0000000000
   2    2   3    2         0.0000000000         0.0000000000
   2    2   1    3        22.3173615417         0.0000000000
   2    2   2    3       -33.2394793754        -0.0000000000
   2    2   3    3         0.0000000000        -0.0000000000
   2    2   1    4      -912.5476361341        -0.0000000000
   2    2   2    4      -730.9755210759         0.0000000000
   2    2   3    4        -0.0000000000        -0.0000000000
   2    2   1    5       -42.7770636039        -0.0000000000
   2    2   2    5        -1.2091254888         0.0000000000
   2    2   3    5        -0.0000000000         0.0000000000
   2    2   1    6        10.9743360666        -0.0000000000
   2    2   2    6       -23.5815835289        -0.0000000000
   2    2   3    6         0.0000000000         0.0000000000
   2    2   1    7       -19.4571359170         0.0000000000
   2    2   2    7         0.5137191342        -0.0000000000
   2    2   3    7         0.0000000000         0.0000000000
   2    2   1    8       196.5483515159        -0.0000000000
   2    2   2    8      -878.4358871074         0.0000000000
   2    2   3    8         0.0000000000        -0.0000000000
   2    2   3   10         0.0000000000         0.0000000000
  
   3    2   1    1        -0.0000000000        -0.0000000000
   3    2   2    1        -0.0000000000        -0.0000000000
   3    2   3    1       -23.7071539212         0.0000000000
   3    2   1    2         0.0000000000         0.0000000000
   3    2   2    2         0.0000000000         0.0000000000
   3    2   3    2     -4036.6766422371         0.0000000000
   3    2   1    3        -0.0000000000         0.0000000000
   3    2   2    3         0.0000000000        -0.0000000000
   3    2   3    3       665.1136872920         0.0000000000
   3    2   1    4        -0.0000000000         0.0000000000
   3    2   2    4        -0.0000000000        -0.0000000000
   3    2   3    4      2277.6384088704         0.0000000000
   3    2   1    5         0.0000000000         0.0000000000
   3    2   2    5        -0.0000000000         0.0000000000
   3    2   3    5      -581.0166955772        -0.0000000000
   3    2   1    6         0.0000000000        -0.0000000000
   3    2   2    6         0.0000000000         0.0000000000
   3    2   3    6       173.8938893990         0.0000000000
   3    2   1    7        -0.0000000000         0.0000000000
   3    2   2    7         0.0000000000         0.0000000000
   3    2   3    7       -23.2520410416        -0.0000000000
   3    2   1    8         0.0000000000         0.0000000000
   3    2   2    8         0.0000000000        -0.0000000000
   3    2   3    8      1896.0893595286        -0.0000000000
   3    2   1   10         0.0000000000         0.0000000000
   3    2   2   10         0.0000000000         0.0000000000
  
   1    3   1    1        -1.8880026588         0.0000000000
   1    3   2    1         6.3910500819         0.0000000000
   1    3   3    1         0.0000000000         0.0000000000
   1    3   1    2       -33.2394793756        -0.0000000000
   1    3   2    2        22.3173615417         0.0000000000
   1    3   3    2        -0.0000000000        -0.0000000000
   1    3   1    3      1720.8541830222         0.0000000000
   1    3   2    3       756.3753634064         0.0000000000
   1    3   3    3        -0.0000000000         0.0000000000
   1    3   1    4        -1.2091254886         0.0000000000
   1    3   2    4       -42.7770636037        -0.0000000000
   1    3   3    4        -0.0000000000        -0.0000000000
   1    3   1    5      -730.9755210771         0.0000000000
   1    3   2    5      -912.5476361341        -0.0000000000
   1    3   3    5         0.0000000000         0.0000000000
   1    3   1    6       -23.5815835288        -0.0000000000
   1    3   2    6        10.9743360664         0.0000000000
   1    3   3    6         0.0000000000        -0.0000000000
   1    3   1    7         0.5137191342         0.0000000000
   1    3   2    7       -19.4571359171         0.0000000000
   1    3   3    7         0.0000000000         0.0000000000
   1    3   1    8      -878.4358871081        -0.0000000000
   1    3   2    8       196.5483515143         0.0000000000
   1    3   3    8         0.0000000000        -0.0000000000
   1    3   3   10         0.0000000000         0.0000000000
  
   2    3   1    1        19.1309564028         0.0000000000
   2    3   2    1         4.9137151771         0.0000000000
   2    3   3    1         0.0000000000        -0.0000000000
   2    3   1    2        49.2290262062         0.0000000000
   2    3   2    2       -33.2394793754         0.0000000000
   2    3   3    2         0.0000000000         0.0000000000
   2    3   1    3       757.4724701578         0.0000000000
   2    3   2    3       515.9873726374         0.0000000000
   2    3   3    3        -0.0000000000         0.0000000000
   2    3   1    4       -14.1048406415        -0.0000000000
   2    3   2    4       -38.6177528539         0.0000000000
   2    3   3    4         0.0000000000         0.0000000000
   2    3   1    5      -942.9483830269        -0.0000000000
   2    3   2    5      -750.2495064949        -0.0000000000
   2    3   3    5         0.0000000000         0.0000000000
   2    3   1    6        68.7289430708         0.0000000000
   2    3   2    6       -24.6276062552        -0.0000000000
   2    3   3    6         0.0000000000         0.0000000000
   2    3   1    7       -17.8156881637         0.0000000000
   2    3   2    7         9.5466176038        -0.0000000000
   2    3   3    7         0.0000000000         0.0000000000
   2    3   1    8        97.0947671185         0.0000000000
   2    3   2    8       360.7842486034        -0.0000000000
   2    3   3    8         0.0000000000        -0.0000000000
   2    3   3   10         0.0000000000         0.0000000000
  
   3    3   1    1         0.0000000000         0.0000000000
   3    3   2    1         0.0000000000        -0.0000000000
   3    3   3    1       -23.7071539221        -0.0000000000
   3    3   1    2         0.0000000000        -0.0000000000
   3    3   2    2         0.0000000000         0.0000000000
   3    3   3    2       665.1136872920        -0.0000000000
   3    3   1    3        -0.0000000000         0.0000000000
   3    3   2    3        -0.0000000000         0.0000000000
   3    3   3    3     -4036.6766422313         0.0000000000
   3    3   1    4        -0.0000000000        -0.0000000000
   3    3   2    4         0.0000000000         0.0000000000
   3    3   3    4      -581.0166955765         0.0000000000
   3    3   1    5         0.0000000000         0.0000000000
   3    3   2    5         0.0000000000         0.0000000000
   3    3   3    5      2277.6384088704         0.0000000000
   3    3   1    6         0.0000000000        -0.0000000000
   3    3   2    6         0.0000000000         0.0000000000
   3    3   3    6       173.8938894000        -0.0000000000
   3    3   1    7         0.0000000000         0.0000000000
   3    3   2    7         0.0000000000         0.0000000000
   3    3   3    7       -23.2520410414         0.0000000000
   3    3   1    8         0.0000000000        -0.0000000000
   3    3   2    8         0.0000000000        -0.0000000000
   3    3   3    8      1896.0893595216        -0.0000000000
   3    3   1   10         0.0000000000         0.0000000000
   3    3   2   10         0.0000000000         0.0000000000
  
   1    4   1    1        -2.5423297970         0.0000000000
   1    4   2    1        -8.0753935584         0.0000000000
   1    4   3    1        -0.0000000000        -0.0000000000
   1    4   1    2      -750.2495064961        -0.0000000000
   1    4   2    2      -912.5476361341         0.0000000000
   1    4   3    2        -0.0000000000        -0.0000000000
   1    4   1    3        -1.2091254886        -0.0000000000
   1    4   2    3       -14.1048406415         0.0000000000
   1    4   3    3        -0.0000000000         0.0000000000
   1    4   3    4         0.0000000000         0.0000000000
   1    4   3    5         0.0000000000        -0.0000000000
   1    4   3    6        -0.0000000000        -0.0000000000
   1    4   3    7         0.0000000000        -0.0000000000
   1    4   3    8        -0.0000000000        -0.0000000000
   1    4   3   10         0.0000000000         0.0000000000
  
   2    4   1    1         2.6694974254         0.0000000000
   2    4   2    1         9.9073586665         0.0000000000
   2    4   3    1         0.0000000000         0.0000000000
   2    4   1    2      -942.9483830269         0.0000000000
   2    4   2    2      -730.9755210759        -0.0000000000
   2    4   3    2        -0.0000000000         0.0000000000
   2    4   1    3       -42.7770636037         0.0000000000
   2    4   2    3       -38.6177528539        -0.0000000000
   2    4   3    3         0.0000000000        -0.0000000000
   2    4   3    4         0.0000000000         0.0000000000
   2    4   3    5        -0.0000000000        -0.0000000000
   2    4   3    6        -0.0000000000        -0.0000000000
   2    4   3    7         0.0000000000         0.0000000000
   2    4   3    8         0.0000000000         0.0000000000
   2    4   3   10         0.0000000000         0.0000000000
  
   3    4   1    1        -0.0000000000        -0.0000000000
   3    4   2    1         0.0000000000         0.0000000000
   3    4   3    1        13.1877535153         0.0000000000
   3    4   1    2        -0.0000000000        -0.0000000000
   3    4   2    2        -0.0000000000         0.0000000000
   3    4   3    2      2277.6384088704        -0.0000000000
   3    4   1    3        -0.0000000000         0.0000000000
   3    4   2    3         0.0000000000        -0.0000000000
   3    4   3    3      -581.0166955765        -0.0000000000
   3    4   1    4         0.0000000000         0.0000000000
   3    4   2    4         0.0000000000         0.0000000000
   3    4   1    5         0.0000000000        -0.0000000000
   3    4   2    5        -0.0000000000        -0.0000000000
   3    4   1    6        -0.0000000000        -0.0000000000
   3    4   2    6        -0.0000000000        -0.0000000000
   3    4   1    7         0.0000000000        -0.0000000000
   3    4   2    7         0.0000000000         0.0000000000
   3    4   1    8        -0.0000000000        -0.0000000000
   3    4   2    8         0.0000000000         0.0000000000
   3    4   1   10         0.0000000000         0.0000000000
   3    4   2   10         0.0000000000         0.0000000000
  
   1    5   1    1         9.9073586665        -0.0000000000
   1    5   2    1         2.6694974255         0.0000000000
   1    5   3    1        -0.0000000000         0.0000000000
   1    5   1    2       -38.6177528539         0.0000000000
   1    5   2    2       -42.7770636039         0.0000000000
   1    5   3    2         0.0000000000        -0.0000000000
   1    5   1    3      -730.9755210771        -0.0000000000
   1    5   2    3      -942.9483830269         0.0000000000
   1    5   3    3         0.0000000000        -0.0000000000
   1    5   3    4         0.0000000000         0.0000000000
   1    5   3    5         0.0000000000         0.0000000000
   1    5   3    6        -0.0000000000         0.0000000000
   1    5   3    7        -0.0000000000        -0.0000000000
   1    5   3    8         0.0000000000         0.0000000000
   1    5   3   10         0.0000000000         0.0000000000
  
   2    5   1    1        -8.0753935583         0.0000000000
   2    5   2    1        -2.5423297970         0.0000000000
   2    5   3    1         0.0000000000         0.0000000000
   2    5   1    2       -14.1048406417         0.0000000000
   2    5   2    2        -1.2091254888        -0.0000000000
   2    5   3    2        -0.0000000000        -0.0000000000
   2    5   1    3      -912.5476361341         0.0000000000
   2    5   2    3      -750.2495064949         0.0000000000
   2    5   3    3         0.0000000000        -0.0000000000
   2    5   3    4        -0.0000000000         0.0000000000
   2    5   3    5         0.0000000000         0.0000000000
   2    5   3    6         0.0000000000        -0.0000000000
   2    5   3    7         0.0000000000        -0.0000000000
   2    5   3    8        -0.0000000000         0.0000000000
   2    5   3   10         0.0000000000         0.0000000000
  
   3    5   1    1        -0.0000000000         0.0000000000
   3    5   2    1         0.0000000000         0.0000000000
   3    5   3    1        13.1877535151         0.0000000000
   3    5   1    2         0.0000000000        -0.0000000000
   3    5   2    2        -0.0000000000        -0.0000000000
   3    5   3    2      -581.0166955772         0.0000000000
   3    5   1    3         0.0000000000        -0.0000000000
   3    5   2    3         0.0000000000        -0.0000000000
   3    5   3    3      2277.6384088704        -0.0000000000
   3    5   1    4         0.0000000000         0.0000000000
   3    5   2    4        -0.0000000000         0.0000000000
   3    5   1    5         0.0000000000         0.0000000000
   3    5   2    5         0.0000000000         0.0000000000
   3    5   1    6        -0.0000000000         0.0000000000
   3    5   2    6         0.0000000000        -0.0000000000
   3    5   1    7        -0.0000000000        -0.0000000000
   3    5   2    7         0.0000000000        -0.0000000000
   3    5   1    8         0.0000000000         0.0000000000
   3    5   2    8        -0.0000000000         0.0000000000
   3    5   1   10         0.0000000000         0.0000000000
   3    5   2   10         0.0000000000         0.0000000000
  
   1    6   1    1       -16.1151960142        -0.0000000000
   1    6   2    1       -12.4666067183         0.0000000000
   1    6   3    1         0.0000000000         0.0000000000
   1    6   1    2       -24.6276062551         0.0000000000
   1    6   2    2        10.9743360666         0.0000000000
   1    6   3    2         0.0000000000         0.0000000000
   1    6   1    3       -23.5815835288         0.0000000000
   1    6   2    3        68.7289430708        -0.0000000000
   1    6   3    3         0.0000000000         0.0000000000
   1    6   3    4        -0.0000000000         0.0000000000
   1    6   3    5        -0.0000000000        -0.0000000000
   1    6   3    6         0.0000000000         0.0000000000
   1    6   3    7        -0.0000000000         0.0000000000
   1    6   3    8        -0.0000000000         0.0000000000
   1    6   3   10         0.0000000000         0.0000000000
  
   2    6   1    1       -12.4666067183         0.0000000000
   2    6   2    1       -16.1151960142        -0.0000000000
   2    6   3    1        -0.0000000000        -0.0000000000
   2    6   1    2        68.7289430709         0.0000000000
   2    6   2    2       -23.5815835289         0.0000000000
   2    6   3    2         0.0000000000        -0.0000000000
   2    6   1    3        10.9743360664        -0.0000000000
   2    6   2    3       -24.6276062552         0.0000000000
   2    6   3    3         0.0000000000        -0.0000000000
   2    6   3    4        -0.0000000000         0.0000000000
   2    6   3    5         0.0000000000         0.0000000000
   2    6   3    6        -0.0000000000         0.0000000000
   2    6   3    7         0.0000000000        -0.0000000000
   2    6   3    8         0.0000000000        -0.0000000000
   2    6   3   10         0.0000000000         0.0000000000
  
   3    6   1    1         0.0000000000         0.0000000000
   3    6   2    1        -0.0000000000        -0.0000000000
   3    6   3    1        97.6476858965         0.0000000000
   3    6   1    2         0.0000000000         0.0000000000
   3    6   2    2         0.0000000000        -0.0000000000
   3    6   3    2       173.8938893990        -0.0000000000
   3    6   1    3         0.0000000000         0.0000000000
   3    6   2    3         0.0000000000        -0.0000000000
   3    6   3    3       173.8938894000         0.0000000000
   3    6   1    4        -0.0000000000         0.0000000000
   3    6   2    4        -0.0000000000         0.0000000000
   3    6   1    5        -0.0000000000        -0.0000000000
   3    6   2    5         0.0000000000         0.0000000000
   3    6   1    6         0.0000000000         0.0000000000
   3    6   2    6        -0.0000000000         0.0000000000
   3    6   1    7        -0.0000000000         0.0000000000
   3    6   2    7         0.0000000000        -0.0000000000
   3    6   1    8        -0.0000000000         0.0000000000
   3    6   2    8         0.0000000000        -0.0000000000
   3    6   1   10         0.0000000000         0.0000000000
   3    6   2   10         0.0000000000         0.0000000000
  
   1    7   1    1         9.0870284214         0.0000000000
   1    7   2    1         6.5450794373         0.0000000000
   1    7   3    1         0.0000000000         0.0000000000
   1    7   1    2         9.5466176038        -0.0000000000
   1    7   2    2       -19.4571359170        -0.0000000000
   1    7   3    2        -0.0000000000        -0.0000000000
   1    7   1    3         0.5137191342        -0.0000000000
   1    7   2    3       -17.8156881637        -0.0000000000
   1    7   3    3         0.0000000000        -0.0000000000
   1    7   3    4         0.0000000000         0.0000000000
   1    7   3    5        -0.0000000000         0.0000000000
   1    7   3    6        -0.0000000000        -0.0000000000
   1    7   3    7         0.0000000000         0.0000000000
   1    7   3    8         0.0000000000        -0.0000000000
   1    7   3   10         0.0000000000         0.0000000000
  
   2    7   1    1         6.5450794373         0.0000000000
   2    7   2    1         9.0870284214        -0.0000000000
   2    7   3    1         0.0000000000         0.0000000000
   2    7   1    2       -17.8156881636        -0.0000000000
   2    7   2    2         0.5137191342         0.0000000000
   2    7   3    2         0.0000000000        -0.0000000000
   2    7   1    3       -19.4571359171        -0.0000000000
   2    7   2    3         9.5466176038         0.0000000000
   2    7   3    3         0.0000000000        -0.0000000000
   2    7   3    4         0.0000000000        -0.0000000000
   2    7   3    5         0.0000000000         0.0000000000
   2    7   3    6         0.0000000000         0.0000000000
   2    7   3    7        -0.0000000000         0.0000000000
   2    7   3    8         0.0000000000         0.0000000000
   2    7   3   10         0.0000000000         0.0000000000
  
   3    7   1    1         0.0000000000         0.0000000000
   3    7   2    1         0.0000000000         0.0000000000
   3    7   3    1       -15.4666919248         0.0000000000
   3    7   1    2        -0.0000000000        -0.0000000000
   3    7   2    2         0.0000000000        -0.0000000000
   3    7   3    2       -23.2520410416         0.0000000000
   3    7   1    3         0.0000000000        -0.0000000000
   3    7   2    3         0.0000000000        -0.0000000000
   3    7   3    3       -23.2520410414        -0.0000000000
   3    7   1    4         0.0000000000         0.0000000000
   3    7   2    4         0.0000000000        -0.0000000000
   3    7   1    5        -0.0000000000         0.0000000000
   3    7   2    5         0.0000000000         0.0000000000
   3    7   1    6        -0.0000000000        -0.0000000000
   3    7   2    6         0.0000000000         0.0000000000
   3    7   1    7         0.0000000000         0.0000000000
   3    7   2    7        -0.0000000000         0.0000000000
   3    7   1    8         0.0000000000        -0.0000000000
   3    7   2    8         0.0000000000         0.0000000000
   3    7   1   10         0.0000000000         0.0000000000
   3    7   2   10         0.0000000000         0.0000000000
  
   1    8   1    1      -718.4113915539        -0.0000000000
   1    8   2    1      -857.9478841847         0.0000000000
   1    8   3    1        -0.0000000000        -0.0000000000
   1    8   1    2       360.7842486052         0.0000000000
   1    8   2    2       196.5483515159         0.0000000000
   1    8   3    2         0.0000000000        -0.0000000000
   1    8   1    3      -878.4358871081         0.0000000000
   1    8   2    3        97.0947671185        -0.0000000000
   1    8   3    3         0.0000000000         0.0000000000
   1    8   3    4        -0.0000000000         0.0000000000
   1    8   3    5         0.0000000000        -0.0000000000
   1    8   3    6        -0.0000000000        -0.0000000000
   1    8   3    7         0.0000000000         0.0000000000
   1    8   3    8         0.0000000000         0.0000000000
   1    8   3   10         0.0000000000         0.0000000000
  
   2    8   1    1      -857.9478841847         0.0000000000
   2    8   2    1      -718.4113915528         0.0000000000
   2    8   3    1         0.0000000000         0.0000000000
   2    8   1    2        97.0947671202         0.0000000000
   2    8   2    2      -878.4358871074        -0.0000000000
   2    8   3    2         0.0000000000         0.0000000000
   2    8   1    3       196.5483515143        -0.0000000000
   2    8   2    3       360.7842486034         0.0000000000
   2    8   3    3         0.0000000000         0.0000000000
   2    8   3    4         0.0000000000        -0.0000000000
   2    8   3    5        -0.0000000000        -0.0000000000
   2    8   3    6         0.0000000000         0.0000000000
   2    8   3    7         0.0000000000        -0.0000000000
   2    8   3    8        -0.0000000000         0.0000000000
   2    8   3   10         0.0000000000         0.0000000000
  
   3    8   1    1        -0.0000000000        -0.0000000000
   3    8   2    1         0.0000000000         0.0000000000
   3    8   3    1      1689.2598486719         0.0000000000
   3    8   1    2         0.0000000000        -0.0000000000
   3    8   2    2         0.0000000000         0.0000000000
   3    8   3    2      1896.0893595286         0.0000000000
   3    8   1    3         0.0000000000         0.0000000000
   3    8   2    3         0.0000000000         0.0000000000
   3    8   3    3      1896.0893595216         0.0000000000
   3    8   1    4        -0.0000000000         0.0000000000
   3    8   2    4         0.0000000000        -0.0000000000
   3    8   1    5         0.0000000000        -0.0000000000
   3    8   2    5        -0.0000000000        -0.0000000000
   3    8   1    6        -0.0000000000        -0.0000000000
   3    8   2    6         0.0000000000         0.0000000000
   3    8   1    7         0.0000000000         0.0000000000
   3    8   2    7         0.0000000000        -0.0000000000
   3    8   1    8         0.0000000000         0.0000000000
   3    8   2    8        -0.0000000000         0.0000000000
   3    8   1   10         0.0000000000         0.0000000000
   3    8   2   10         0.0000000000         0.0000000000
  
   1   10   3    1         0.0000000000         0.0000000000
   1   10   3    2         0.0000000000         0.0000000000
   1   10   3    3         0.0000000000         0.0000000000
   1   10   3    4         0.0000000000         0.0000000000
   1   10   3    5         0.0000000000         0.0000000000
   1   10   3    6         0.0000000000         0.0000000000
   1   10   3    7         0.0000000000         0.0000000000
   1   10   3    8         0.0000000000         0.0000000000
   1   10   3   10         0.0000000000         0.0000000000
  
   2   10   3    1         0.0000000000         0.0000000000
   2   10   3    2         0.0000000000         0.0000000000
   2   10   3    3         0.0000000000         0.0000000000
   2   10   3    4         0.0000000000         0.0000000000
   2   10   3    5         0.0000000000         0.0000000000
   2   10   3    6         0.0000000000         0.0000000000
   2   10   3    7         0.0000000000         0.0000000000
   2   10   3    8         0.0000000000         0.0000000000
   2   10   3   10         0.0000000000         0.0000000000
  
   3   10   1    1         0.0000000000         0.0000000000
   3   10   2    1         0.0000000000         0.0000000000
   3   10   1    2         0.0000000000         0.0000000000
   3   10   2    2         0.0000000000         0.0000000000
   3   10   1    3         0.0000000000         0.0000000000
   3   10   2    3         0.0000000000         0.0000000000
   3   10   1    4         0.0000000000         0.0000000000
   3   10   2    4         0.0000000000         0.0000000000
   3   10   1    5         0.0000000000         0.0000000000
   3   10   2    5         0.0000000000         0.0000000000
   3   10   1    6         0.0000000000         0.0000000000
   3   10   2    6         0.0000000000         0.0000000000
   3   10   1    7         0.0000000000         0.0000000000
   3   10   2    7         0.0000000000         0.0000000000
   3   10   1    8         0.0000000000         0.0000000000
   3   10   2    8         0.0000000000         0.0000000000
   3   10   1   10         0.0000000000         0.0000000000
   3   10   2   10         0.0000000000         0.0000000000
  
  
  Dynamical matrix, in cartesian coordinates,
   if specified in the inputs, asr has been imposed
     j1       j2             matrix element
  dir pert dir pert     real part    imaginary part
  
   1    1   1    1         8.5719722474         0.0000000000
   1    1   2    1         6.5685765942         0.0000000000
   1    1   3    1        -0.0000000000         0.0000000000
   1    1   1    2         0.0574407905        -0.0000000000
   1    1   2    2         0.0435930004         0.0000000000
   1    1   3    2        -0.0000000000         0.0000000000
   1    1   1    3        -0.0218497731        -0.0000000000
   1    1   2    3         0.2682676702        -0.0000000000
   1    1   3    3         0.0000000000        -0.0000000000
   1    1   1    4        -0.0294222728        -0.0000000000
   1    1   2    4         0.0526602504        -0.0000000000
   1    1   3    4        -0.0000000000         0.0000000000
   1    1   1    5         0.1146574333         0.0000000000
   1    1   2    5        -0.1741114017        -0.0000000000
   1    1   3    5        -0.0000000000        -0.0000000000
   1    1   1    6        -0.1865004664         0.0000000000
   1    1   2    6        -0.0589189034        -0.0000000000
   1    1   3    6         0.0000000000        -0.0000000000
   1    1   1    7         0.1051637868        -0.0000000000
   1    1   2    7         0.0267475154        -0.0000000000
   1    1   3    7         0.0000000000        -0.0000000000
   1    1   1    8        -8.3141439573         0.0000000000
   1    1   2    8        -6.6648411773        -0.0000000000
   1    1   3    8        -0.0000000000         0.0000000000
  
   2    1   1    1         6.5685765942         0.0000000000
   2    1   2    1         0.9872333177         0.0000000000
   2    1   3    1        -0.0000000000         0.0000000000
   2    1   1    2         0.2224892420         0.0000000000
   2    1   2    2        -0.2019026152        -0.0000000000
   2    1   3    2        -0.0000000000         0.0000000000
   2    1   1    3         0.0893714286        -0.0000000000
   2    1   2    3        -0.1226120516        -0.0000000000
   2    1   3    3         0.0000000000         0.0000000000
   2    1   1    4        -0.0909269446        -0.0000000000
   2    1   2    4         0.1847772882        -0.0000000000
   2    1   3    4         0.0000000000        -0.0000000000
   2    1   1    5        -0.0305242067        -0.0000000000
   2    1   2    5         0.0406975821        -0.0000000000
   2    1   3    5         0.0000000000         0.0000000000
   2    1   1    6        -0.0589189034        -0.0000000000
   2    1   2    6        -0.1184667769         0.0000000000
   2    1   3    6        -0.0000000000         0.0000000000
   2    1   1    7         0.0267475154        -0.0000000000
   2    1   2    7         0.0742784165         0.0000000000
   2    1   3    7         0.0000000000        -0.0000000000
   2    1   1    8        -6.6648411773        -0.0000000000
   2    1   2    8        -0.6182482616         0.0000000000
   2    1   3    8         0.0000000000        -0.0000000000
  
   3    1   1    1        -0.0000000000         0.0000000000
   3    1   2    1        -0.0000000000         0.0000000000
   3    1   3    1        -2.9628799293         0.0000000000
   3    1   1    2        -0.0000000000         0.0000000000
   3    1   2    2         0.0000000000         0.0000000000
   3    1   3    2        -0.0495890309        -0.0000000000
   3    1   1    3        -0.0000000000        -0.0000000000
   3    1   2    3         0.0000000000         0.0000000000
   3    1   3    3        -0.0495890309         0.0000000000
   3    1   1    4        -0.0000000000         0.0000000000
   3    1   2    4         0.0000000000        -0.0000000000
   3    1   3    4         0.0244194082        -0.0000000000
   3    1   1    5        -0.0000000000        -0.0000000000
   3    1   2    5         0.0000000000         0.0000000000
   3    1   3    5         0.0244194082        -0.0000000000
   3    1   1    6         0.0000000000        -0.0000000000
   3    1   2    6        -0.0000000000         0.0000000000
   3    1   3    6         0.1808115918        -0.0000000000
   3    1   1    7         0.0000000000        -0.0000000000
   3    1   2    7         0.0000000000        -0.0000000000
   3    1   3    7        -0.0286392571        -0.0000000000
   3    1   1    8        -0.0000000000         0.0000000000
   3    1   2    8         0.0000000000        -0.0000000000
   3    1   3    8         3.1279569949        -0.0000000000
  
   1    2   1    1         0.0568662132         0.0000000000
   1    2   2    1         0.2228209744        -0.0000000000
   1    2   3    1        -0.0000000000        -0.0000000000
   1    2   1    2         5.9714995428         0.0000000000
   1    2   2    2         6.6746845226         0.0000000000
   1    2   3    2         0.0000000000         0.0000000000
   1    2   1    3        -0.3846790569         0.0000000000
   1    2   2    3         0.8799567725        -0.0000000000
   1    2   3    3         0.0000000000         0.0000000000
   1    2   1    4        -8.6826050842         0.0000000000
   1    2   2    4        -7.5879971600        -0.0000000000
   1    2   3    4        -0.0000000000         0.0000000000
   1    2   1    5        -0.4469215832        -0.0000000000
   1    2   2    5         0.0695430882        -0.0000000000
   1    2   3    5         0.0000000000         0.0000000000
   1    2   1    6        -0.2850142218        -0.0000000000
   1    2   2    6         1.0829984801        -0.0000000000
   1    2   3    6         0.0000000000        -0.0000000000
   1    2   1    7         0.1104825926         0.0000000000
   1    2   2    7        -0.3018635292         0.0000000000
   1    2   3    7        -0.0000000000         0.0000000000
   1    2   1    8         4.1753405022        -0.0000000000
   1    2   2    8        -1.1131275216        -0.0000000000
   1    2   3    8         0.0000000000         0.0000000000
  
   2    2   1    1         0.0525737921        -0.0000000000
   2    2   2    1        -0.2070876777         0.0000000000
   2    2   3    1         0.0000000000        -0.0000000000
   2    2   1    2         6.6600235566         0.0000000000
   2    2   2    2        16.8645308787         0.0000000000
   2    2   3    2         0.0000000000         0.0000000000
   2    2   1    3         0.5203281407        -0.0000000000
   2    2   2    3        -1.1931339285        -0.0000000000
   2    2   3    3         0.0000000000        -0.0000000000
   2    2   1    4        -7.1817428779        -0.0000000000
   2    2   2    4         0.1421176352         0.0000000000
   2    2   3    4        -0.0000000000        -0.0000000000
   2    2   1    5        -0.3136124112        -0.0000000000
   2    2   2    5         0.2712298078         0.0000000000
   2    2   3    5        -0.0000000000        -0.0000000000
   2    2   1    6         0.3112063761        -0.0000000000
   2    2   2    6        -1.0738180032        -0.0000000000
   2    2   3    6         0.0000000000         0.0000000000
   2    2   1    7        -0.3237986869         0.0000000000
   2    2   2    7         0.3323257171        -0.0000000000
   2    2   3    7         0.0000000000        -0.0000000000
   2    2   1    8         0.2159005011        -0.0000000000
   2    2   2    8       -14.4285666015         0.0000000000
   2    2   3    8         0.0000000000        -0.0000000000
  
   3    2   1    1        -0.0000000000        -0.0000000000
   3    2   2    1        -0.0000000000        -0.0000000000
   3    2   3    1        -0.0438978988         0.0000000000
   3    2   1    2         0.0000000000         0.0000000000
   3    2   2    2         0.0000000000         0.0000000000
   3    2   3    2        -7.4746054901         0.0000000000
   3    2   1    3        -0.0000000000         0.0000000000
   3    2   2    3         0.0000000000        -0.0000000000
   3    2   3    3         1.2315731130         0.0000000000
   3    2   1    4        -0.0000000000         0.0000000000
   3    2   2    4        -0.0000000000        -0.0000000000
   3    2   3    4         4.2174417384         0.0000000000
   3    2   1    5         0.0000000000         0.0000000000
   3    2   2    5        -0.0000000000        -0.0000000000
   3    2   3    5        -1.0758529770        -0.0000000000
   3    2   1    6         0.0000000000        -0.0000000000
   3    2   2    6         0.0000000000         0.0000000000
   3    2   3    6         0.3219946346         0.0000000000
   3    2   1    7        -0.0000000000         0.0000000000
   3    2   2    7         0.0000000000        -0.0000000000
   3    2   3    7        -0.0430551786        -0.0000000000
   3    2   1    8         0.0000000000         0.0000000000
   3    2   2    8         0.0000000000        -0.0000000000
   3    2   3    8         3.5109376332        -0.0000000000
  
   1    3   1    1        -0.0218497731         0.0000000000
   1    3   2    1         0.0980204880         0.0000000000
   1    3   3    1         0.0000000000         0.0000000000
   1    3   1    2        -0.3846790569        -0.0000000000
   1    3   2    2         0.5203281407         0.0000000000
   1    3   3    2        -0.0000000000        -0.0000000000
   1    3   1    3        19.9153710190         0.0000000000
   1    3   2    3        -1.3904743937         0.0000000000
   1    3   3    3        -0.0000000000         0.0000000000
   1    3   1    4        -0.0139931570         0.0000000000
   1    3   2    4        -0.5635637546        -0.0000000000
   1    3   3    4        -0.0000000000        -0.0000000000
   1    3   1    5        -8.4595480847         0.0000000000
   1    3   2    5        -7.3105248966        -0.0000000000
   1    3   3    5         0.0000000000         0.0000000000
   1    3   1    6        -0.2729086461        -0.0000000000
   1    3   2    6         0.3042172186         0.0000000000
   1    3   3    6         0.0000000000        -0.0000000000
   1    3   1    7         0.0059452493         0.0000000000
   1    3   2    7        -0.2634440236         0.0000000000
   1    3   3    7         0.0000000000         0.0000000000
   1    3   1    8       -10.1661005219        -0.0000000000
   1    3   2    8         8.4959353370         0.0000000000
   1    3   3    8         0.0000000000        -0.0000000000
  
   2    3   1    1         0.2682676702         0.0000000000
   2    3   2    1        -0.1283716915         0.0000000000
   2    3   3    1         0.0000000000        -0.0000000000
   2    3   1    2         0.8799567725         0.0000000000
   2    3   2    2        -1.1931339285         0.0000000000
   2    3   3    2         0.0000000000         0.0000000000
   2    3   1    3        -1.3758134277         0.0000000000
   2    3   2    3         2.9206594025         0.0000000000
   2    3   3    3        -0.0000000000         0.0000000000
   2    3   1    4        -0.1804082553        -0.0000000000
   2    3   2    4        -0.1616986185         0.0000000000
   2    3   3    4         0.0000000000         0.0000000000
   2    3   1    5        -7.7167791787        -0.0000000000
   2    3   2    5        -0.0809393643        -0.0000000000
   2    3   3    5         0.0000000000         0.0000000000
   2    3   1    6         1.0760093226         0.0000000000
   2    3   2    6        -1.0859235789        -0.0000000000
   2    3   3    6        -0.0000000000         0.0000000000
   2    3   1    7        -0.2415088659         0.0000000000
   2    3   2    7         0.4368630603        -0.0000000000
   2    3   3    7         0.0000000000        -0.0000000000
   2    3   1    8         7.1669073142         0.0000000000
   2    3   2    8        -0.0871255773        -0.0000000000
   2    3   3    8         0.0000000000         0.0000000000
  
   3    3   1    1         0.0000000000         0.0000000000
   3    3   2    1         0.0000000000        -0.0000000000
   3    3   3    1        -0.0438978988        -0.0000000000
   3    3   1    2         0.0000000000        -0.0000000000
   3    3   2    2         0.0000000000         0.0000000000
   3    3   3    2         1.2315731130        -0.0000000000
   3    3   1    3        -0.0000000000         0.0000000000
   3    3   2    3        -0.0000000000         0.0000000000
   3    3   3    3        -7.4746054901         0.0000000000
   3    3   1    4        -0.0000000000        -0.0000000000
   3    3   2    4         0.0000000000         0.0000000000
   3    3   3    4        -1.0758529770         0.0000000000
   3    3   1    5         0.0000000000         0.0000000000
   3    3   2    5         0.0000000000         0.0000000000
   3    3   3    5         4.2174417384         0.0000000000
   3    3   1    6         0.0000000000        -0.0000000000
   3    3   2    6        -0.0000000000         0.0000000000
   3    3   3    6         0.3219946346        -0.0000000000
   3    3   1    7         0.0000000000         0.0000000000
   3    3   2    7         0.0000000000        -0.0000000000
   3    3   3    7        -0.0430551786         0.0000000000
   3    3   1    8         0.0000000000        -0.0000000000
   3    3   2    8         0.0000000000         0.0000000000
   3    3   3    8         3.5109376332        -0.0000000000
  
   1    4   1    1        -0.0294222728         0.0000000000
   1    4   2    1        -0.0909269446         0.0000000000
   1    4   3    1        -0.0000000000        -0.0000000000
   1    4   1    2        -8.6826050842        -0.0000000000
   1    4   2    2        -7.1817428779         0.0000000000
   1    4   3    2        -0.0000000000        -0.0000000000
   1    4   1    3        -0.0139931570        -0.0000000000
   1    4   2    3        -0.1804082553         0.0000000000
   1    4   3    3        -0.0000000000         0.0000000000
   1    4   3    4         0.0000000000         0.0000000000
   1    4   3    5         0.0000000000        -0.0000000000
   1    4   3    6        -0.0000000000        -0.0000000000
   1    4   3    7         0.0000000000        -0.0000000000
   1    4   3    8        -0.0000000000        -0.0000000000
  
   2    4   1    1         0.0526602504         0.0000000000
   2    4   2    1         0.1847772882         0.0000000000
   2    4   3    1         0.0000000000         0.0000000000
   2    4   1    2        -7.5879971600         0.0000000000
   2    4   2    2         0.1421176352        -0.0000000000
   2    4   3    2        -0.0000000000         0.0000000000
   2    4   1    3        -0.5635637546         0.0000000000
   2    4   2    3        -0.1616986185        -0.0000000000
   2    4   3    3         0.0000000000        -0.0000000000
   2    4   3    4        -0.0000000000         0.0000000000
   2    4   3    5        -0.0000000000        -0.0000000000
   2    4   3    6        -0.0000000000         0.0000000000
   2    4   3    7         0.0000000000         0.0000000000
   2    4   3    8         0.0000000000         0.0000000000
  
   3    4   1    1        -0.0000000000        -0.0000000000
   3    4   2    1         0.0000000000         0.0000000000
   3    4   3    1         0.0244194082         0.0000000000
   3    4   1    2        -0.0000000000        -0.0000000000
   3    4   2    2        -0.0000000000         0.0000000000
   3    4   3    2         4.2174417384        -0.0000000000
   3    4   1    3        -0.0000000000         0.0000000000
   3    4   2    3         0.0000000000        -0.0000000000
   3    4   3    3        -1.0758529770        -0.0000000000
   3    4   1    4         0.0000000000         0.0000000000
   3    4   2    4        -0.0000000000         0.0000000000
   3    4   1    5         0.0000000000        -0.0000000000
   3    4   2    5        -0.0000000000        -0.0000000000
   3    4   1    6        -0.0000000000        -0.0000000000
   3    4   2    6        -0.0000000000         0.0000000000
   3    4   1    7         0.0000000000        -0.0000000000
   3    4   2    7         0.0000000000         0.0000000000
   3    4   1    8        -0.0000000000        -0.0000000000
   3    4   2    8         0.0000000000         0.0000000000
  
   1    5   1    1         0.1146574333        -0.0000000000
   1    5   2    1        -0.0305242067         0.0000000000
   1    5   3    1        -0.0000000000         0.0000000000
   1    5   1    2        -0.4469215832         0.0000000000
   1    5   2    2        -0.3136124112         0.0000000000
   1    5   3    2         0.0000000000        -0.0000000000
   1    5   1    3        -8.4595480847        -0.0000000000
   1    5   2    3        -7.7167791787         0.0000000000
   1    5   3    3         0.0000000000        -0.0000000000
   1    5   3    4         0.0000000000         0.0000000000
   1    5   3    5         0.0000000000         0.0000000000
   1    5   3    6        -0.0000000000         0.0000000000
   1    5   3    7        -0.0000000000        -0.0000000000
   1    5   3    8         0.0000000000         0.0000000000
  
   2    5   1    1        -0.1741114017         0.0000000000
   2    5   2    1         0.0406975821         0.0000000000
   2    5   3    1         0.0000000000        -0.0000000000
   2    5   1    2         0.0695430882         0.0000000000
   2    5   2    2         0.2712298078        -0.0000000000
   2    5   3    2        -0.0000000000         0.0000000000
   2    5   1    3        -7.3105248966         0.0000000000
   2    5   2    3        -0.0809393643         0.0000000000
   2    5   3    3         0.0000000000        -0.0000000000
   2    5   3    4        -0.0000000000         0.0000000000
   2    5   3    5         0.0000000000         0.0000000000
   2    5   3    6         0.0000000000        -0.0000000000
   2    5   3    7         0.0000000000        -0.0000000000
   2    5   3    8        -0.0000000000         0.0000000000
  
   3    5   1    1        -0.0000000000         0.0000000000
   3    5   2    1         0.0000000000        -0.0000000000
   3    5   3    1         0.0244194082         0.0000000000
   3    5   1    2         0.0000000000        -0.0000000000
   3    5   2    2        -0.0000000000         0.0000000000
   3    5   3    2        -1.0758529770         0.0000000000
   3    5   1    3         0.0000000000        -0.0000000000
   3    5   2    3         0.0000000000        -0.0000000000
   3    5   3    3         4.2174417384        -0.0000000000
   3    5   1    4         0.0000000000         0.0000000000
   3    5   2    4        -0.0000000000         0.0000000000
   3    5   1    5         0.0000000000         0.0000000000
   3    5   2    5         0.0000000000         0.0000000000
   3    5   1    6        -0.0000000000         0.0000000000
   3    5   2    6         0.0000000000        -0.0000000000
   3    5   1    7        -0.0000000000        -0.0000000000
   3    5   2    7         0.0000000000        -0.0000000000
   3    5   1    8         0.0000000000         0.0000000000
   3    5   2    8        -0.0000000000         0.0000000000
  
   1    6   1    1        -0.1865004664        -0.0000000000
   1    6   2    1        -0.0589189034         0.0000000000
   1    6   3    1         0.0000000000         0.0000000000
   1    6   1    2        -0.2850142218         0.0000000000
   1    6   2    2         0.3112063761         0.0000000000
   1    6   3    2         0.0000000000         0.0000000000
   1    6   1    3        -0.2729086461         0.0000000000
   1    6   2    3         1.0760093226        -0.0000000000
   1    6   3    3         0.0000000000         0.0000000000
   1    6   3    4        -0.0000000000         0.0000000000
   1    6   3    5        -0.0000000000        -0.0000000000
   1    6   3    6         0.0000000000         0.0000000000
   1    6   3    7        -0.0000000000         0.0000000000
   1    6   3    8        -0.0000000000         0.0000000000
  
   2    6   1    1        -0.0589189034         0.0000000000
   2    6   2    1        -0.1184667769        -0.0000000000
   2    6   3    1        -0.0000000000        -0.0000000000
   2    6   1    2         1.0829984801         0.0000000000
   2    6   2    2        -1.0738180032         0.0000000000
   2    6   3    2         0.0000000000        -0.0000000000
   2    6   1    3         0.3042172186        -0.0000000000
   2    6   2    3        -1.0859235789         0.0000000000
   2    6   3    3        -0.0000000000        -0.0000000000
   2    6   3    4        -0.0000000000        -0.0000000000
   2    6   3    5         0.0000000000         0.0000000000
   2    6   3    6        -0.0000000000         0.0000000000
   2    6   3    7         0.0000000000        -0.0000000000
   2    6   3    8         0.0000000000        -0.0000000000
  
   3    6   1    1         0.0000000000         0.0000000000
   3    6   2    1        -0.0000000000        -0.0000000000
   3    6   3    1         0.1808115918         0.0000000000
   3    6   1    2         0.0000000000         0.0000000000
   3    6   2    2         0.0000000000        -0.0000000000
   3    6   3    2         0.3219946346        -0.0000000000
   3    6   1    3         0.0000000000         0.0000000000
   3    6   2    3        -0.0000000000        -0.0000000000
   3    6   3    3         0.3219946346         0.0000000000
   3    6   1    4        -0.0000000000         0.0000000000
   3    6   2    4        -0.0000000000        -0.0000000000
   3    6   1    5        -0.0000000000        -0.0000000000
   3    6   2    5         0.0000000000         0.0000000000
   3    6   1    6         0.0000000000         0.0000000000
   3    6   2    6        -0.0000000000         0.0000000000
   3    6   1    7        -0.0000000000         0.0000000000
   3    6   2    7         0.0000000000        -0.0000000000
   3    6   1    8        -0.0000000000         0.0000000000
   3    6   2    8         0.0000000000        -0.0000000000
  
   1    7   1    1         0.1051637868         0.0000000000
   1    7   2    1         0.0267475154         0.0000000000
   1    7   3    1         0.0000000000         0.0000000000
   1    7   1    2         0.1104825926        -0.0000000000
   1    7   2    2        -0.3237986869        -0.0000000000
   1    7   3    2        -0.0000000000        -0.0000000000
   1    7   1    3         0.0059452493        -0.0000000000
   1    7   2    3        -0.2415088659        -0.0000000000
   1    7   3    3         0.0000000000        -0.0000000000
   1    7   3    4         0.0000000000         0.0000000000
   1    7   3    5        -0.0000000000         0.0000000000
   1    7   3    6        -0.0000000000        -0.0000000000
   1    7   3    7         0.0000000000         0.0000000000
   1    7   3    8         0.0000000000        -0.0000000000
  
   2    7   1    1         0.0267475154         0.0000000000
   2    7   2    1         0.0742784165        -0.0000000000
   2    7   3    1         0.0000000000         0.0000000000
   2    7   1    2        -0.3018635292        -0.0000000000
   2    7   2    2         0.3323257171         0.0000000000
   2    7   3    2         0.0000000000         0.0000000000
   2    7   1    3        -0.2634440236        -0.0000000000
   2    7   2    3         0.4368630603         0.0000000000
   2    7   3    3         0.0000000000         0.0000000000
   2    7   3    4         0.0000000000        -0.0000000000
   2    7   3    5         0.0000000000         0.0000000000
   2    7   3    6         0.0000000000         0.0000000000
   2    7   3    7        -0.0000000000         0.0000000000
   2    7   3    8         0.0000000000         0.0000000000
  
   3    7   1    1         0.0000000000         0.0000000000
   3    7   2    1         0.0000000000         0.0000000000
   3    7   3    1        -0.0286392571         0.0000000000
   3    7   1    2        -0.0000000000        -0.0000000000
   3    7   2    2         0.0000000000         0.0000000000
   3    7   3    2        -0.0430551786         0.0000000000
   3    7   1    3         0.0000000000        -0.0000000000
   3    7   2    3         0.0000000000         0.0000000000
   3    7   3    3        -0.0430551786        -0.0000000000
   3    7   1    4         0.0000000000         0.0000000000
   3    7   2    4         0.0000000000        -0.0000000000
   3    7   1    5        -0.0000000000         0.0000000000
   3    7   2    5         0.0000000000         0.0000000000
   3    7   1    6        -0.0000000000        -0.0000000000
   3    7   2    6         0.0000000000         0.0000000000
   3    7   1    7         0.0000000000         0.0000000000
   3    7   2    7        -0.0000000000         0.0000000000
   3    7   1    8         0.0000000000        -0.0000000000
   3    7   2    8         0.0000000000         0.0000000000
  
   1    8   1    1        -8.3141439573        -0.0000000000
   1    8   2    1        -6.6648411773         0.0000000000
   1    8   3    1        -0.0000000000        -0.0000000000
   1    8   1    2         4.1753405022         0.0000000000
   1    8   2    2         0.2159005011         0.0000000000
   1    8   3    2         0.0000000000        -0.0000000000
   1    8   1    3       -10.1661005219         0.0000000000
   1    8   2    3         7.1669073142        -0.0000000000
   1    8   3    3         0.0000000000         0.0000000000
   1    8   3    4        -0.0000000000         0.0000000000
   1    8   3    5         0.0000000000        -0.0000000000
   1    8   3    6        -0.0000000000        -0.0000000000
   1    8   3    7         0.0000000000         0.0000000000
   1    8   3    8         0.0000000000         0.0000000000
  
   2    8   1    1        -6.6648411773         0.0000000000
   2    8   2    1        -0.6182482616        -0.0000000000
   2    8   3    1         0.0000000000         0.0000000000
   2    8   1    2        -1.1131275216         0.0000000000
   2    8   2    2       -14.4285666015        -0.0000000000
   2    8   3    2         0.0000000000         0.0000000000
   2    8   1    3         8.4959353370        -0.0000000000
   2    8   2    3        -0.0871255773         0.0000000000
   2    8   3    3         0.0000000000        -0.0000000000
   2    8   3    4         0.0000000000        -0.0000000000
   2    8   3    5        -0.0000000000        -0.0000000000
   2    8   3    6         0.0000000000         0.0000000000
   2    8   3    7         0.0000000000        -0.0000000000
   2    8   3    8        -0.0000000000         0.0000000000
  
   3    8   1    1        -0.0000000000        -0.0000000000
   3    8   2    1         0.0000000000         0.0000000000
   3    8   3    1         3.1279569949         0.0000000000
   3    8   1    2         0.0000000000        -0.0000000000
   3    8   2    2         0.0000000000         0.0000000000
   3    8   3    2         3.5109376332         0.0000000000
   3    8   1    3         0.0000000000         0.0000000000
   3    8   2    3         0.0000000000        -0.0000000000
   3    8   3    3         3.5109376332         0.0000000000
   3    8   1    4        -0.0000000000         0.0000000000
   3    8   2    4         0.0000000000        -0.0000000000
   3    8   1    5         0.0000000000        -0.0000000000
   3    8   2    5        -0.0000000000        -0.0000000000
   3    8   1    6        -0.0000000000        -0.0000000000
   3    8   2    6         0.0000000000         0.0000000000
   3    8   1    7         0.0000000000         0.0000000000
   3    8   2    7         0.0000000000        -0.0000000000
   3    8   1    8         0.0000000000         0.0000000000
   3    8   2    8        -0.0000000000         0.0000000000

  Phonon wavevector (reduced coordinates) :  0.00000  0.00000  0.00000
 Phonon energies in Hartree :
  -1.994087E-02 -1.688828E-02 -1.225845E-02 -1.198430E-02  0.000000E+00
   0.000000E+00  0.000000E+00  0.000000E+00  0.000000E+00  0.000000E+00
   0.000000E+00  0.000000E+00  0.000000E+00  0.000000E+00  0.000000E+00
   0.000000E+00  0.000000E+00  0.000000E+00  0.000000E+00  8.426583E-03
   1.356774E-02  2.505411E-02  2.999032E-02  3.053606E-02
 Phonon frequencies in cm-1    :
- -4.376516E+03 -3.706548E+03 -2.690419E+03 -2.630249E+03  0.000000E+00
-  0.000000E+00  0.000000E+00  0.000000E+00  0.000000E+00  0.000000E+00
-  0.000000E+00  0.000000E+00  0.000000E+00  0.000000E+00  0.000000E+00
-  0.000000E+00  0.000000E+00  0.000000E+00  0.000000E+00  1.849421E+03
-  2.977775E+03  5.498741E+03  6.582115E+03  6.701891E+03
 chkph3 : WARNING -
  The dynamical matrix was incomplete : phonon frequencies may be wrong ...

== END DATASET(S) ==============================================================
================================================================================
  
 -outvars: echo values of variables after computation  --------
            acell      1.8897261250E+00  1.8897261250E+00  1.8897261250E+00 Bohr
              amu      1.08110000E+01  1.20110000E+01  1.40067400E+01
             ecut      5.00000000E+01 Hartree
           etotal     -4.0358795439E+03
            fcart      0.0000000000E+00  0.0000000000E+00  0.0000000000E+00
                       0.0000000000E+00  0.0000000000E+00  0.0000000000E+00
                       0.0000000000E+00  0.0000000000E+00  0.0000000000E+00
                       0.0000000000E+00  0.0000000000E+00  0.0000000000E+00
                       0.0000000000E+00  0.0000000000E+00  0.0000000000E+00
                       0.0000000000E+00  0.0000000000E+00  0.0000000000E+00
                       0.0000000000E+00  0.0000000000E+00  0.0000000000E+00
                       0.0000000000E+00  0.0000000000E+00  0.0000000000E+00
-          fftalg         112
           irdwfk           1
           istwfk        1
              ixc          11
           kptopt           2
         kptrlatt        1    0    0      0    1    0      0    0    1
          kptrlen      9.29560873E+00
P           mkmem           1
P          mkqmem           1
P          mk1mem           1
            natom           8
            nband          17
            ngfft          60      60     150
             nkpt           1
             nqpt           1
            nstep        1000
             nsym           4
           ntypat           3
              occ      2.000000  2.000000  2.000000  2.000000  2.000000  2.000000
                       2.000000  2.000000  2.000000  2.000000  2.000000  2.000000
                       2.000000  2.000000  2.000000  2.000000  0.000000
        optdriver           1
          rfatpol           1       2
            rfdir           1       1       1
           rfphon           1
            rprim      4.9190243000E+00  0.0000000000E+00  0.0000000000E+00
                       2.4595121500E+00  4.2600000056E+00  0.0000000000E+00
                       0.0000000000E+00  0.0000000000E+00  1.2297560730E+01
          spgroup          38
           strten      0.0000000000E+00  0.0000000000E+00  0.0000000000E+00
                       0.0000000000E+00  0.0000000000E+00  0.0000000000E+00
           symrel      1  0  0   0  1  0   0  0  1       0  1  0   1  0  0   0  0 -1
                       1  0  0   0  1  0   0  0 -1       0  1  0   1  0  0   0  0  1
           tolwfr      1.00000000E-05
            typat      1  2  2  2  2  2  2  3
           xangst      6.1487803493E-01  3.5499999899E-01  0.0000000000E+00
                       1.2297560699E+00  1.4199999959E+00  0.0000000000E+00
                       1.8446341048E+00  3.5499999899E-01  0.0000000000E+00
                       1.8446341048E+00  1.7749999949E+00  0.0000000000E+00
                       2.4595121397E+00  7.0999999797E-01  0.0000000000E+00
                       2.4595121397E+00  1.4199999959E+00  0.0000000000E+00
                       3.0743901747E+00  1.7749999949E+00  0.0000000000E+00
                       1.2297560699E+00  7.0999999797E-01  0.0000000000E+00
            xcart      1.1619510911E+00  6.7085277526E-01  0.0000000000E+00
                       2.3239021823E+00  2.6834111010E+00  0.0000000000E+00
                       3.4858532734E+00  6.7085277526E-01  0.0000000000E+00
                       3.4858532734E+00  3.3542638763E+00  0.0000000000E+00
                       4.6478043646E+00  1.3417055505E+00  0.0000000000E+00
                       4.6478043646E+00  2.6834111010E+00  0.0000000000E+00
                       5.8097554557E+00  3.3542638763E+00  0.0000000000E+00
                       2.3239021823E+00  1.3417055505E+00  0.0000000000E+00
             xred      8.3333333333E-02  8.3333333333E-02  0.0000000000E+00
                       8.3333333333E-02  3.3333333333E-01  0.0000000000E+00
                       3.3333333333E-01  8.3333333333E-02  0.0000000000E+00
                       1.6666666667E-01  4.1666666667E-01  0.0000000000E+00
                       4.1666666667E-01  1.6666666667E-01  0.0000000000E+00
                       3.3333333333E-01  3.3333333333E-01  0.0000000000E+00
                       4.1666666667E-01  4.1666666667E-01  0.0000000000E+00
                       1.6666666667E-01  1.6666666667E-01  0.0000000000E+00
            znucl        5.00000    6.00000    7.00000

================================================================================


- Timing analysis has been suppressed with timopt=0



================================================================================

 Suggested references for the acknowledgment of ABINIT usage.

 The users of ABINIT have little formal obligations with respect to the ABINIT group
 (those specified in the GNU General Public License, http://www.gnu.org/copyleft/gpl.txt).
 However, it is common practice in the scientific literature,
 to acknowledge the efforts of people that have made the research possible.
 In this spirit, please find below suggested citations of work written by ABINIT developers,
 corresponding to implementations inside of ABINIT that you have used in the present run.
 Note also that it will be of great value to readers of publications presenting these results,
 to read papers enabling them to understand the theoretical formalism and details
 of the ABINIT implementation.
 For information on why they are suggested, see also http://www.abinit.org/about/?text=acknowledgments.
-
- [1] Recent developments in the ABINIT software package.
- Computer Phys. Comm. 205, 106 (2016).
- X.Gonze, F.Jollet, F.Abreu Araujo, D.Adams, B.Amadon, T.Applencourt,
- C.Audouze, J.-M.Beuken, J.Bieder, A.Bokhanchuk, E.Bousquet, F.Bruneval
- D.Caliste, M.Cote, F.Dahm, F.Da Pieve, M.Delaveau, M.Di Gennaro,
- B.Dorado, C.Espejo, G.Geneste, L.Genovese, A.Gerossier, M.Giantomassi,
- Y.Gillet, D.R.Hamann, L.He, G.Jomard, J.Laflamme Janssen, S.Le Roux,
- A.Levitt, A.Lherbier, F.Liu, I.Lukacevic, A.Martin, C.Martins,
- M.J.T.Oliveira, S.Ponce, Y.Pouillon, T.Rangel, G.-M.Rignanese,
- A.H.Romero, B.Rousseau, O.Rubel, A.A.Shukri, M.Stankovski, M.Torrent,
- M.J.Van Setten, B.Van Troeye, M.J.Verstraete, D.Waroquier, J.Wiktor,
- B.Xue, A.Zhou, J.W.Zwanziger.
- Comment : the fourth generic paper describing the ABINIT project.
- Note that a version of this paper, that is not formatted for Computer Phys. Comm. 
- is available at http://www.abinit.org/about/ABINIT16.pdf .
- The licence allows the authors to put it on the Web.
-
- [2] First-principles responses of solids to atomic displacements and homogeneous electric fields:,
- implementation of a conjugate-gradient algorithm. X. Gonze, Phys. Rev. B55, 10337 (1997).
- Comment : Non-vanishing rfphon and/or rfelfd, in the norm-conserving case.
-
- [3] Dynamical matrices, Born effective charges, dielectric permittivity tensors, and ,
- interatomic force constants from density-functional perturbation theory,
- X. Gonze and C. Lee, Phys. Rev. B55, 10355 (1997).
- Comment : Non-vanishing rfphon and/or rfelfd, in the norm-conserving case.
-
- [4] ABINIT : First-principles approach of materials and nanosystem properties.
- Computer Phys. Comm. 180, 2582-2615 (2009).
- X. Gonze, B. Amadon, P.-M. Anglade, J.-M. Beuken, F. Bottin, P. Boulanger, F. Bruneval,
- D. Caliste, R. Caracas, M. Cote, T. Deutsch, L. Genovese, Ph. Ghosez, M. Giantomassi
- S. Goedecker, D.R. Hamann, P. Hermet, F. Jollet, G. Jomard, S. Leroux, M. Mancini, S. Mazevet,
- M.J.T. Oliveira, G. Onida, Y. Pouillon, T. Rangel, G.-M. Rignanese, D. Sangalli, R. Shaltaf,
- M. Torrent, M.J. Verstraete, G. Zerah, J.W. Zwanziger
- Comment : the third generic paper describing the ABINIT project.
- Note that a version of this paper, that is not formatted for Computer Phys. Comm. 
- is available at http://www.abinit.org/about/ABINIT_CPC_v10.pdf .
- The licence allows the authors to put it on the Web.
-
- [5] A brief introduction to the ABINIT software package.
- Z. Kristallogr. 220, 558-562 (2005).
- X. Gonze, G.-M. Rignanese, M. Verstraete, J.-M. Beuken, Y. Pouillon, R. Caracas, F. Jollet,
- M. Torrent, G. Zerah, M. Mikami, Ph. Ghosez, M. Veithen, J.-Y. Raty, V. Olevano, F. Bruneval,
- L. Reining, R. Godby, G. Onida, D.R. Hamann, and D.C. Allan.
- Comment : the second generic paper describing the ABINIT project. Note that this paper
- should be cited especially if you are using the GW part of ABINIT, as several authors
- of this part are not in the list of authors of the first or third paper.
- The .pdf of the latter paper is available at http://www.abinit.org/about/zfk_0505-06_558-562.pdf.
- Note that it should not redistributed (Copyright by Oldenburg Wissenshaftverlag,
- the licence allows the authors to put it on the Web).
-
- Proc.   0 individual time (sec): cpu=       1108.9  wall=        323.6

================================================================================

 Calculation completed.
.Delivered  19 WARNINGs and   4 COMMENTs to log file.
+Overall time at end (sec) : cpu=       1108.9  wall=        323.6
